TITLE      = Boundary data
VARIABLES  =  "x0" "x1" "p" "u" "v" "T"
ZONE N=180, T="1, TR 0", E=179, F=FEPOINT, ET=LINESEG, SOLUTIONTIME=0
      0.050763760000      -4.468014000000 10.000000000000 -6623.940000000000 0.000000000000 273.000000000000 
      0.101162200000      -4.435455000000 10.000000000000 -6623.940000000000 0.000000000000 273.000000000000 
      0.151188800000      -4.402327000000 10.000000000000 -6623.940000000000 0.000000000000 273.000000000000 
      0.200837100000      -4.368636000000 10.000000000000 -6623.940000000000 0.000000000000 273.000000000000 
      0.250100900000      -4.334384000000 10.000000000000 -6623.940000000000 0.000000000000 273.000000000000 
      0.298973800000      -4.299577000000 10.000000000000 -6623.940000000000 0.000000000000 273.000000000000 
      0.347449500000      -4.264219000000 10.000000000000 -6623.940000000000 0.000000000000 273.000000000000 
      0.395521700000      -4.228314000000 10.000000000000 -6623.940000000000 0.000000000000 273.000000000000 
      0.443184500000      -4.191868000000 10.000000000000 -6623.940000000000 0.000000000000 273.000000000000 
      0.490431600000      -4.154884000000 10.000000000000 -6623.940000000000 0.000000000000 273.000000000000 
      0.537257000000      -4.117368000000 10.000000000000 -6623.940000000000 0.000000000000 273.000000000000 
      0.583654700000      -4.079324000000 10.000000000000 -6623.940000000000 0.000000000000 273.000000000000 
      0.629618700000      -4.040757000000 10.000000000000 -6623.940000000000 0.000000000000 273.000000000000 
      0.675143100000      -4.001672000000 10.000000000000 -6623.940000000000 0.000000000000 273.000000000000 
      0.720222200000      -3.962075000000 10.000000000000 -6623.940000000000 0.000000000000 273.000000000000 
      0.764850100000      -3.921969000000 10.000000000000 -6623.940000000000 0.000000000000 273.000000000000 
      0.809021200000      -3.881361000000 10.000000000000 -6623.940000000000 0.000000000000 273.000000000000 
      0.852729700000      -3.840256000000 10.000000000000 -6623.940000000000 0.000000000000 273.000000000000 
      0.895970000000      -3.798658000000 10.000000000000 -6623.940000000000 0.000000000000 273.000000000000 
      0.938736700000      -3.756574000000 10.000000000000 -6623.940000000000 0.000000000000 273.000000000000 
      0.981024200000      -3.714008000000 10.000000000000 -6623.940000000000 0.000000000000 273.000000000000 
      1.022827000000      -3.670966000000 10.000000000000 -6623.940000000000 0.000000000000 273.000000000000 
      1.064140000000      -3.627454000000 10.000000000000 -6623.940000000000 0.000000000000 273.000000000000 
      1.104958000000      -3.583477000000 10.000000000000 -6623.940000000000 0.000000000000 273.000000000000 
      1.145275000000      -3.539040000000 10.000000000000 -6623.940000000000 0.000000000000 273.000000000000 
      1.185087000000      -3.494150000000 10.000000000000 -6623.940000000000 0.000000000000 273.000000000000 
      1.224388000000      -3.448812000000 10.000000000000 -6623.940000000000 0.000000000000 273.000000000000 
      1.263173000000      -3.403032000000 10.000000000000 -6623.940000000000 0.000000000000 273.000000000000 
      1.301437000000      -3.356816000000 10.000000000000 -6623.940000000000 0.000000000000 273.000000000000 
      1.339176000000      -3.310170000000 10.000000000000 -6623.940000000000 0.000000000000 273.000000000000 
      1.376384000000      -3.263099000000 10.000000000000 -6623.940000000000 0.000000000000 273.000000000000 
      1.413057000000      -3.215610000000 10.000000000000 -6623.940000000000 0.000000000000 273.000000000000 
      1.449190000000      -3.167710000000 10.000000000000 -6623.940000000000 0.000000000000 273.000000000000 
      1.484778000000      -3.119403000000 10.000000000000 -6623.940000000000 0.000000000000 273.000000000000 
      1.519818000000      -3.070696000000 10.000000000000 -6623.940000000000 0.000000000000 273.000000000000 
      1.554303000000      -3.021596000000 10.000000000000 -6623.940000000000 0.000000000000 273.000000000000 
      1.588231000000      -2.972108000000 10.000000000000 -6623.940000000000 0.000000000000 273.000000000000 
      1.621596000000      -2.922240000000 10.000000000000 -6623.940000000000 0.000000000000 273.000000000000 
      1.654395000000      -2.871997000000 10.000000000000 -6623.940000000000 0.000000000000 273.000000000000 
      1.686622000000      -2.821386000000 10.000000000000 -6623.940000000000 0.000000000000 273.000000000000 
      1.718275000000      -2.770414000000 10.000000000000 -6623.940000000000 0.000000000000 273.000000000000 
      1.749348000000      -2.719086000000 10.000000000000 -6623.940000000000 0.000000000000 273.000000000000 
      1.779839000000      -2.667410000000 10.000000000000 -6623.940000000000 0.000000000000 273.000000000000 
      1.809742000000      -2.615392000000 10.000000000000 -6623.940000000000 0.000000000000 273.000000000000 
      1.839055000000      -2.563039000000 10.000000000000 -6623.940000000000 0.000000000000 273.000000000000 
      1.867773000000      -2.510357000000 10.000000000000 -6623.940000000000 0.000000000000 273.000000000000 
      1.895893000000      -2.457354000000 10.000000000000 -6623.940000000000 0.000000000000 273.000000000000 
      1.923411000000      -2.404036000000 10.000000000000 -6623.940000000000 0.000000000000 273.000000000000 
      1.950324000000      -2.350409000000 10.000000000000 -6623.940000000000 0.000000000000 273.000000000000 
      1.976628000000      -2.296481000000 10.000000000000 -6623.940000000000 0.000000000000 273.000000000000 
      2.002319000000      -2.242259000000 10.000000000000 -6623.940000000000 0.000000000000 273.000000000000 
      2.027396000000      -2.187750000000 10.000000000000 -6623.940000000000 0.000000000000 273.000000000000 
      2.051853000000      -2.132960000000 10.000000000000 -6623.940000000000 0.000000000000 273.000000000000 
      2.075689000000      -2.077897000000 10.000000000000 -6623.940000000000 0.000000000000 273.000000000000 
      2.098900000000      -2.022568000000 10.000000000000 -6623.940000000000 0.000000000000 273.000000000000 
      2.121483000000      -1.966979000000 10.000000000000 -6623.940000000000 0.000000000000 273.000000000000 
      2.143435000000      -1.911138000000 10.000000000000 -6623.940000000000 0.000000000000 273.000000000000 
      2.164754000000      -1.855053000000 10.000000000000 -6623.940000000000 0.000000000000 273.000000000000 
      2.185436000000      -1.798729000000 10.000000000000 -6623.940000000000 0.000000000000 273.000000000000 
      2.205479000000      -1.742175000000 10.000000000000 -6623.940000000000 0.000000000000 273.000000000000 
      2.224881000000      -1.685398000000 10.000000000000 -6623.940000000000 0.000000000000 273.000000000000 
      2.243639000000      -1.628405000000 10.000000000000 -6623.940000000000 0.000000000000 273.000000000000 
      2.261751000000      -1.571203000000 10.000000000000 -6623.940000000000 0.000000000000 273.000000000000 
      2.279214000000      -1.513800000000 10.000000000000 -6623.940000000000 0.000000000000 273.000000000000 
      2.296025000000      -1.456202000000 10.000000000000 -6623.940000000000 0.000000000000 273.000000000000 
      2.312184000000      -1.398418000000 10.000000000000 -6623.940000000000 0.000000000000 273.000000000000 
      2.327688000000      -1.340455000000 10.000000000000 -6623.940000000000 0.000000000000 273.000000000000 
      2.342534000000      -1.282320000000 10.000000000000 -6623.940000000000 0.000000000000 273.000000000000 
      2.356721000000      -1.224021000000 10.000000000000 -6623.940000000000 0.000000000000 273.000000000000 
      2.370247000000      -1.165565000000 10.000000000000 -6623.940000000000 0.000000000000 273.000000000000 
      2.383111000000      -1.106959000000 10.000000000000 -6623.940000000000 0.000000000000 273.000000000000 
      2.395311000000      -1.048212000000 10.000000000000 -6623.940000000000 0.000000000000 273.000000000000 
      2.406844000000      -0.989330100000 10.000000000000 -6623.940000000000 0.000000000000 273.000000000000 
      2.417710000000      -0.930321500000 10.000000000000 -6623.940000000000 0.000000000000 273.000000000000 
      2.427908000000      -0.871193700000 10.000000000000 -6623.940000000000 0.000000000000 273.000000000000 
      2.437435000000      -0.811954200000 10.000000000000 -6623.940000000000 0.000000000000 273.000000000000 
      2.446292000000      -0.752610700000 10.000000000000 -6623.940000000000 0.000000000000 273.000000000000 
      2.454476000000      -0.693170700000 10.000000000000 -6623.940000000000 0.000000000000 273.000000000000 
      2.461986000000      -0.633641900000 10.000000000000 -6623.940000000000 0.000000000000 273.000000000000 
      2.468822000000      -0.574031900000 10.000000000000 -6623.940000000000 0.000000000000 273.000000000000 
      2.474983000000      -0.514348300000 10.000000000000 -6623.940000000000 0.000000000000 273.000000000000 
      2.480468000000      -0.454598800000 10.000000000000 -6623.940000000000 0.000000000000 273.000000000000 
      2.485276000000      -0.394791000000 10.000000000000 -6623.940000000000 0.000000000000 273.000000000000 
      2.489406000000      -0.334932600000 10.000000000000 -6623.940000000000 0.000000000000 273.000000000000 
      2.492859000000      -0.275031300000 10.000000000000 -6623.940000000000 0.000000000000 273.000000000000 
      2.495633000000      -0.215094700000 10.000000000000 -6623.940000000000 0.000000000000 273.000000000000 
      2.497729000000      -0.155130600000 10.000000000000 -6623.940000000000 0.000000000000 273.000000000000 
      2.499146000000      -0.095146620000 10.000000000000 -6623.940000000000 0.000000000000 273.000000000000 
      2.499883000000      -0.035150430000 10.000000000000 -6623.940000000000 0.000000000000 273.000000000000 
      2.499942000000       0.024850270000 10.000000000000 -6623.940000000000 0.000000000000 273.000000000000 
      2.499321000000       0.084847790000 10.000000000000 -6623.940000000000 0.000000000000 273.000000000000 
      2.498021000000       0.144834400000 10.000000000000 -6623.940000000000 0.000000000000 273.000000000000 
      2.496042000000       0.204802500000 10.000000000000 -6623.940000000000 0.000000000000 273.000000000000 
      2.493384000000       0.264744300000 10.000000000000 -6623.940000000000 0.000000000000 273.000000000000 
      2.490047000000       0.324652200000 10.000000000000 -6623.940000000000 0.000000000000 273.000000000000 
      2.486033000000       0.384518500000 10.000000000000 -6623.940000000000 0.000000000000 273.000000000000 
      2.481341000000       0.444335500000 10.000000000000 -6623.940000000000 0.000000000000 273.000000000000 
      2.475973000000       0.504095600000 10.000000000000 -6623.940000000000 0.000000000000 273.000000000000 
      2.469928000000       0.563791100000 10.000000000000 -6623.940000000000 0.000000000000 273.000000000000 
      2.463208000000       0.623414300000 10.000000000000 -6623.940000000000 0.000000000000 273.000000000000 
      2.455813000000       0.682957600000 10.000000000000 -6623.940000000000 0.000000000000 273.000000000000 
      2.447744000000       0.742413300000 10.000000000000 -6623.940000000000 0.000000000000 273.000000000000 
      2.439004000000       0.801774000000 10.000000000000 -6623.940000000000 0.000000000000 273.000000000000 
      2.429591000000       0.861031800000 10.000000000000 -6623.940000000000 0.000000000000 273.000000000000 
      2.419509000000       0.920179400000 10.000000000000 -6623.940000000000 0.000000000000 273.000000000000 
      2.408757000000       0.979208900000 10.000000000000 -6623.940000000000 0.000000000000 273.000000000000 
      2.397338000000       1.038113000000 10.000000000000 -6623.940000000000 0.000000000000 273.000000000000 
      2.385253000000       1.096884000000 10.000000000000 -6623.940000000000 0.000000000000 273.000000000000 
      2.372503000000       1.155515000000 10.000000000000 -6623.940000000000 0.000000000000 273.000000000000 
      2.359090000000       1.213997000000 10.000000000000 -6623.940000000000 0.000000000000 273.000000000000 
      2.345016000000       1.272324000000 10.000000000000 -6623.940000000000 0.000000000000 273.000000000000 
      2.330283000000       1.330487000000 10.000000000000 -6623.940000000000 0.000000000000 273.000000000000 
      2.314892000000       1.388481000000 10.000000000000 -6623.940000000000 0.000000000000 273.000000000000 
      2.298846000000       1.446296000000 10.000000000000 -6623.940000000000 0.000000000000 273.000000000000 
      2.282146000000       1.503926000000 10.000000000000 -6623.940000000000 0.000000000000 273.000000000000 
      2.264795000000       1.561363000000 10.000000000000 -6623.940000000000 0.000000000000 273.000000000000 
      2.246794000000       1.618600000000 10.000000000000 -6623.940000000000 0.000000000000 273.000000000000 
      2.228147000000       1.675629000000 10.000000000000 -6623.940000000000 0.000000000000 273.000000000000 
      2.208856000000       1.732444000000 10.000000000000 -6623.940000000000 0.000000000000 273.000000000000 
      2.188922000000       1.789037000000 10.000000000000 -6623.940000000000 0.000000000000 273.000000000000 
      2.168350000000       1.845401000000 10.000000000000 -6623.940000000000 0.000000000000 273.000000000000 
      2.147140000000       1.901528000000 10.000000000000 -6623.940000000000 0.000000000000 273.000000000000 
      2.125296000000       1.957411000000 10.000000000000 -6623.940000000000 0.000000000000 273.000000000000 
      2.102821000000       2.013043000000 10.000000000000 -6623.940000000000 0.000000000000 273.000000000000 
      2.079718000000       2.068418000000 10.000000000000 -6623.940000000000 0.000000000000 273.000000000000 
      2.055989000000       2.123527000000 10.000000000000 -6623.940000000000 0.000000000000 273.000000000000 
      2.031638000000       2.178364000000 10.000000000000 -6623.940000000000 0.000000000000 273.000000000000 
      2.006668000000       2.232922000000 10.000000000000 -6623.940000000000 0.000000000000 273.000000000000 
      1.981082000000       2.287194000000 10.000000000000 -6623.940000000000 0.000000000000 273.000000000000 
      1.954883000000       2.341173000000 10.000000000000 -6623.940000000000 0.000000000000 273.000000000000 
      1.928074000000       2.394851000000 10.000000000000 -6623.940000000000 0.000000000000 273.000000000000 
      1.900660000000       2.448223000000 10.000000000000 -6623.940000000000 0.000000000000 273.000000000000 
      1.872643000000       2.501281000000 10.000000000000 -6623.940000000000 0.000000000000 273.000000000000 
      1.844027000000       2.554018000000 10.000000000000 -6623.940000000000 0.000000000000 273.000000000000 
      1.814816000000       2.606428000000 10.000000000000 -6623.940000000000 0.000000000000 273.000000000000 
      1.785014000000       2.658504000000 10.000000000000 -6623.940000000000 0.000000000000 273.000000000000 
      1.754624000000       2.710240000000 10.000000000000 -6623.940000000000 0.000000000000 273.000000000000 
      1.723650000000       2.761628000000 10.000000000000 -6623.940000000000 0.000000000000 273.000000000000 
      1.692097000000       2.812662000000 10.000000000000 -6623.940000000000 0.000000000000 273.000000000000 
      1.659968000000       2.863335000000 10.000000000000 -6623.940000000000 0.000000000000 273.000000000000 
      1.627267000000       2.913642000000 10.000000000000 -6623.940000000000 0.000000000000 273.000000000000 
      1.593998000000       2.963576000000 10.000000000000 -6623.940000000000 0.000000000000 273.000000000000 
      1.560166000000       3.013129000000 10.000000000000 -6623.940000000000 0.000000000000 273.000000000000 
      1.525776000000       3.062297000000 10.000000000000 -6623.940000000000 0.000000000000 273.000000000000 
      1.490831000000       3.111073000000 10.000000000000 -6623.940000000000 0.000000000000 273.000000000000 
      1.455335000000       3.159450000000 10.000000000000 -6623.940000000000 0.000000000000 273.000000000000 
      1.419294000000       3.207422000000 10.000000000000 -6623.940000000000 0.000000000000 273.000000000000 
      1.382712000000       3.254984000000 10.000000000000 -6623.940000000000 0.000000000000 273.000000000000 
      1.345593000000       3.302130000000 10.000000000000 -6623.940000000000 0.000000000000 273.000000000000 
      1.307941000000       3.348853000000 10.000000000000 -6623.940000000000 0.000000000000 273.000000000000 
      1.269762000000       3.395149000000 10.000000000000 -6623.940000000000 0.000000000000 273.000000000000 
      1.231060000000       3.441010000000 10.000000000000 -6623.940000000000 0.000000000000 273.000000000000 
      1.191839000000       3.486433000000 10.000000000000 -6623.940000000000 0.000000000000 273.000000000000 
      1.152104000000       3.531412000000 10.000000000000 -6623.940000000000 0.000000000000 273.000000000000 
      1.111859000000       3.575942000000 10.000000000000 -6623.940000000000 0.000000000000 273.000000000000 
      1.071108000000       3.620017000000 10.000000000000 -6623.940000000000 0.000000000000 273.000000000000 
      1.029855000000       3.663634000000 10.000000000000 -6623.940000000000 0.000000000000 273.000000000000 
      0.988103200000       3.706788000000 10.000000000000 -6623.940000000000 0.000000000000 273.000000000000 
      0.945856900000       3.749474000000 10.000000000000 -6623.940000000000 0.000000000000 273.000000000000 
      0.903118800000       3.791690000000 10.000000000000 -6623.940000000000 0.000000000000 273.000000000000 
      0.859891700000       3.833431000000 10.000000000000 -6623.940000000000 0.000000000000 273.000000000000 
      0.816177800000       3.874695000000 10.000000000000 -6623.940000000000 0.000000000000 273.000000000000 
      0.771979100000       3.915478000000 10.000000000000 -6623.940000000000 0.000000000000 273.000000000000 
      0.727296900000       3.955778000000 10.000000000000 -6623.940000000000 0.000000000000 273.000000000000 
      0.682132300000       3.995592000000 10.000000000000 -6623.940000000000 0.000000000000 273.000000000000 
      0.636485800000       4.034918000000 10.000000000000 -6623.940000000000 0.000000000000 273.000000000000 
      0.590357900000       4.073754000000 10.000000000000 -6623.940000000000 0.000000000000 273.000000000000 
      0.543748700000       4.112097000000 10.000000000000 -6623.940000000000 0.000000000000 273.000000000000 
      0.496658500000       4.149945000000 10.000000000000 -6623.940000000000 0.000000000000 273.000000000000 
      0.449087800000       4.187294000000 10.000000000000 -6623.940000000000 0.000000000000 273.000000000000 
      0.401037700000       4.224140000000 10.000000000000 -6623.940000000000 0.000000000000 273.000000000000 
      0.352510400000       4.260479000000 10.000000000000 -6623.940000000000 0.000000000000 273.000000000000 
      0.303509300000       4.296304000000 10.000000000000 -6623.940000000000 0.000000000000 273.000000000000 
      0.254039400000       4.331610000000 10.000000000000 -6623.940000000000 0.000000000000 273.000000000000 
      0.204108000000       4.366387000000 10.000000000000 -6623.940000000000 0.000000000000 273.000000000000 
      0.153724800000       4.400626000000 10.000000000000 -6623.940000000000 0.000000000000 273.000000000000 
      0.102901900000       4.434316000000 10.000000000000 -6623.940000000000 0.000000000000 273.000000000000 
      0.051654450000       4.467445000000 10.000000000000 -6623.940000000000 0.000000000000 273.000000000000 
      0.000000000000       4.500000000000 10.000000000000 -6623.940000000000 0.000000000000 273.000000000000 
      0.000000000000      -4.500000000000 10.000000000000 -6623.940000000000 0.000000000000 273.000000000000 
180 1 
1 2 
2 3 
3 4 
4 5 
5 6 
6 7 
7 8 
8 9 
10 11 
9 10 
11 12 
12 13 
13 14 
14 15 
16 17 
15 16 
17 18 
19 20 
18 19 
20 21 
21 22 
22 23 
23 24 
178 179 
177 178 
176 177 
175 176 
174 175 
173 174 
172 173 
171 172 
170 171 
169 170 
168 169 
167 168 
166 167 
165 166 
164 165 
163 164 
162 163 
161 162 
160 161 
159 160 
158 159 
156 157 
157 158 
24 25 
25 26 
27 28 
26 27 
29 30 
28 29 
30 31 
31 32 
32 33 
33 34 
34 35 
35 36 
37 38 
36 37 
38 39 
40 41 
41 42 
42 43 
39 40 
44 45 
46 47 
45 46 
47 48 
43 44 
49 50 
48 49 
50 51 
51 52 
52 53 
53 54 
54 55 
55 56 
56 57 
57 58 
59 60 
58 59 
61 62 
62 63 
60 61 
63 64 
65 66 
66 67 
67 68 
68 69 
64 65 
69 70 
70 71 
71 72 
73 74 
74 75 
76 77 
75 76 
72 73 
78 79 
79 80 
77 78 
80 81 
81 82 
82 83 
83 84 
85 86 
84 85 
87 88 
86 87 
88 89 
89 90 
154 155 
155 156 
153 154 
151 152 
152 153 
150 151 
149 150 
148 149 
147 148 
146 147 
145 146 
144 145 
143 144 
140 141 
142 143 
141 142 
90 91 
92 93 
91 92 
94 95 
93 94 
96 97 
95 96 
97 98 
98 99 
100 101 
99 100 
101 102 
103 104 
102 103 
105 106 
104 105 
106 107 
139 140 
137 138 
138 139 
136 137 
135 136 
134 135 
133 134 
132 133 
107 108 
109 110 
108 109 
111 112 
110 111 
113 114 
112 113 
114 115 
130 131 
131 132 
129 130 
128 129 
127 128 
115 116 
117 118 
116 117 
118 119 
126 127 
125 126 
124 125 
119 120 
120 121 
123 124 
122 123 
121 122 
ZONE N=59, T="2, TR 0", E=58, F=FEPOINT, ET=LINESEG, SOLUTIONTIME=0.000000000000
      0.000000000000       4.500000000000 10.000000000000 -6623.940000000000 0.000000000000 273.000000000000 
      0.000000000000       4.440000000000 10.000000000001 -6623.939999999995 0.000000000002 273.000000000032 
      0.000000000000       4.380000000000 10.000000000002 -6623.939999999986 0.000000000001 273.000000000066 
      0.000000000000       4.320000000000 10.000000000001 -6623.939999999996 -0.000000000001 273.000000000021 
      0.000000000000       4.260000000000 9.999999999999 -6623.940000000003 -0.000000000002 272.999999999972 
      0.000000000000       4.200000000000 10.000000000001 -6623.939999999995 0.000000000001 273.000000000022 
      0.000000000000       4.140000000000 10.000000000000 -6623.939999999995 0.000000000001 272.999999999997 
      0.000000000000       4.080000000000 10.000000000000 -6623.939999999998 -0.000000000001 272.999999999987 
      0.000000000000       4.020000000000 10.000000000000 -6623.939999999999 -0.000000000002 273.000000000004 
      0.000000000000       3.960000000000 10.000000000001 -6623.939999999994 -0.000000000000 273.000000000019 
      0.000000000000       3.900000000000 9.999999999999 -6623.939999999999 0.000000000005 272.999999999982 
      0.000000000000       3.840000000000 10.000000000001 -6623.939999999996 0.000000000008 273.000000000022 
      0.000000000000       3.780000000000 10.000000000001 -6623.939999999992 0.000000000005 273.000000000038 
      0.000000000000       3.720000000000 9.999999999999 -6623.939999999994 -0.000000000001 272.999999999980 
      0.000000000000       3.660000000000 9.999999999999 -6623.939999999996 -0.000000000001 272.999999999982 
      0.000000000000       3.600000000000 10.000000000001 -6623.939999999986 0.000000000001 273.000000000038 
      0.000000000000       3.540000000000 9.999999999998 -6623.939999999999 -0.000000000010 272.999999999955 
      0.000000000000       3.479999000000 9.999999999997 -6623.940000000001 0.000000000004 272.999999999908 
      0.000000000000       3.419999000000 10.000000000001 -6623.939999999983 0.000000000007 273.000000000034 
      0.000000000000       3.359999000000 10.000000000002 -6623.939999999981 0.000000000005 273.000000000058 
      0.000000000000       3.299998000000 10.000000000004 -6623.939999999977 -0.000000000004 273.000000000105 
      0.000000000000       3.239997000000 10.000000000004 -6623.939999999977 -0.000000000012 273.000000000113 
      0.000000000000       3.179996000000 10.000000000002 -6623.939999999983 -0.000000000010 273.000000000058 
      0.000000000000       3.119995000000 10.000000000001 -6623.939999999995 -0.000000000004 273.000000000017 
      0.000000000000       3.059993000000 10.000000000002 -6623.939999999998 -0.000000000001 273.000000000038 
      0.000000000000       2.999990000000 10.000000000001 -6623.939999999999 0.000000000000 273.000000000023 
      0.000000000000       2.939986000000 9.999999999999 -6623.940000000010 0.000000000001 272.999999999978 
      0.000000000000       2.879981000000 9.999999999997 -6623.940000000012 0.000000000012 272.999999999931 
      0.000000000000       2.819973000000 9.999999999999 -6623.940000000003 0.000000000015 272.999999999975 
      0.000000000000       2.759964000000 10.000000000000 -6623.939999999998 0.000000000003 273.000000000006 
      0.000000000000       2.699950000000 9.999999999999 -6623.940000000004 -0.000000000004 272.999999999969 
      0.000000000000       2.639933000000 9.999999999999 -6623.940000000008 -0.000000000007 272.999999999978 
      0.000000000000       2.579910000000 10.000000000001 -6623.940000000011 -0.000000000005 273.000000000007 
      0.000000000000       2.519879000000 10.000000000000 -6623.940000000014 0.000000000004 272.999999999983 
      0.000000000000       2.459839000000 10.000000000001 -6623.940000000008 0.000000000024 273.000000000010 
      0.000000000000       2.399787000000 726.955498965280 -5204.782756534129 1776.669350520438 6603.286071049311 
      0.000000000000       2.339720000000 1693.047150656489 -4391.249616963556 2550.634502515877 9282.795194749084 
      0.000000000000       2.279634000000 1845.426514212027 -4174.754762012842 2550.685191979206 10244.897711936837 
      0.000000000000       2.219524000000 1800.366182505381 -4074.158430873262 2453.358174594562 10888.246474973766 
      0.000000000000       2.159384000000 1726.247435715135 -4006.933095146163 2352.993470848863 11397.293813328122 
      0.000000000000       2.099209000000 1657.747299826691 -3941.944683694896 2250.020210491577 11865.147051779302 
      0.000000000000       2.038991000000 1595.993698304069 -3882.530506817073 2150.826769160176 12246.179026602988 
      0.000000000000       1.978721000000 1538.435993961967 -3832.130962240309 2058.453539525521 12653.384421004994 
      0.000000000000       1.918390000000 1484.964911142500 -3777.619874358927 1965.135719105902 12993.022060373649 
      0.000000000000       1.857987000000 1436.194687707668 -3773.246482294255 1900.093389433350 13186.076474661328 
      0.000000000000       1.797502000000 1387.113480055499 -3781.654335778790 1839.331999668615 13344.465225719554 
      0.000000000000       1.736922000000 1336.593917234038 -3780.270066512003 1770.488468510132 13534.755137561369 
      0.000000000000       1.676236000000 1285.990352306575 -3776.992470415045 1698.736061975396 13697.125697695090 
      0.000000000000       1.615432000000 1234.828075736686 -3775.539948033597 1625.351475118385 13806.400691750296 
      0.000000000000       1.554500000000 1182.644538588173 -3782.176425394294 1552.701819116778 13876.378406908552 
      0.000000000000       1.493431000000 1128.600208980652 -3804.458906738833 1482.628627893675 13852.461779614507 
      0.000000000000       1.432219000000 1070.952655890952 -3846.288526079148 1413.700100352747 13754.870302755069 
      0.000000000000       1.370860000000 1007.694910447374 -3902.373358058466 1339.723288715679 13622.178185174083 
      0.000000000000       1.309354000000 938.050218360775 -3971.597853168492 1256.869064704080 13475.036765870273 
      0.000000000000       1.247707000000 859.918077744047 -4057.241657768364 1159.102237412156 13294.800402984303 
      0.000000000000       1.185929000000 768.238551823486 -4165.720162304005 1030.857099012432 13021.881928634737 
      0.000000000000       1.124037000000 648.690198630841 -4327.527825570253 834.184260688488 12531.794939928246 
      0.000000000000       1.062052000000 507.288051777957 -4559.550121640063 542.080574945920 11777.939285555256 
      0.000000000000       1.000000000000 387.352922894726 -4747.221720832498 444.946860529064 10922.771653977081 
58 59 
56 57 
57 58 
54 55 
52 53 
51 52 
53 54 
55 56 
48 49 
47 48 
49 50 
46 47 
45 46 
50 51 
42 43 
40 41 
41 42 
39 40 
38 39 
43 44 
44 45 
35 36 
34 35 
32 33 
33 34 
31 32 
36 37 
37 38 
29 30 
27 28 
28 29 
25 26 
24 25 
26 27 
30 31 
22 23 
23 24 
21 22 
20 21 
18 19 
17 18 
19 20 
15 16 
13 14 
14 15 
11 12 
9 10 
8 9 
10 11 
12 13 
16 17 
5 6 
4 5 
6 7 
3 4 
1 2 
2 3 
7 8 
ZONE N=53, T="3, TR 0", E=52, F=FEPOINT, ET=LINESEG, SOLUTIONTIME=0.000000000000
      0.000000000000       1.000000000000 387.352922894726 -4747.221720832498 444.946860529064 10922.771653977081 
      0.059966480000       0.998200400000 444.376851706049 -4641.704798990479 594.854621100893 11351.006664195595 
      0.119717200000       0.992808000000 520.051120232459 -4493.348781804759 841.976855668956 11837.738868941276 
      0.179037000000       0.983842300000 637.923356527555 -4315.579392507950 1022.756305710910 12498.464861374317 
      0.237712400000       0.971335600000 764.403168904766 -4122.877761603456 1204.415623836924 13124.274312023545 
      0.295532200000       0.955332700000 908.848539986247 -3914.459423073879 1369.584266468180 13761.866821714300 
      0.352288400000       0.935891500000 1071.298936924141 -3692.619470428254 1515.677808329221 14405.101529991140 
      0.407776600000       0.913081700000 1253.342315186634 -3458.284551149379 1639.158388754707 15055.222416729230 
      0.461797200000       0.886985500000 1459.120482120388 -3211.226995187312 1735.065956521657 15720.739628156389 
      0.514155600000       0.857696900000 1675.056838776158 -2962.514129104713 1809.664780765621 16356.883686865793 
      0.564663600000       0.825321200000 1914.512066204923 -2705.497731470909 1853.137583888666 17003.703458395445 
      0.613139200000       0.789974900000 2176.413506647487 -2423.856262426232 1886.898476100616 17659.428750153504 